                         Program Version 5.0.3 -  RELEASE  -
|  1> !B3LYP DEF2-SVP OPT
|  2> %output
|  3>   PrintLevel Mini
|  4>   end
|  5> %pal nprocs 24 end
|  6> %geom
|  7>    MaxIter 100
|  8>    end
|  9> * xyz 0 1
| 10>  C          2.7096257717        0.4485425840       -0.1642468052
| 11>  O          1.6129240859       -0.3729460844       -0.4731468833
| 12>  C          0.5792691748       -0.3038794459        0.4737850854
| 13>  C         -0.6259287025       -1.1814200074        0.1129703833
| 14>  C         -1.5616297389        0.0278787901        0.3813677180
| 15>  N         -2.5534423120        0.3946855950       -0.5955360159
| 16>  C         -0.3277748108        0.9463976314        0.4387433643
| 17>  H          2.4232357834        1.5059502274       -0.1279952120
| 18>  H          3.4427033088        0.2984300215       -0.9543598973
| 19>  H          3.1510448465        0.1713354047        0.8016461929
| 20>  H          0.9743574303       -0.5045008344        1.4803574133
| 21>  H         -0.7765019858       -2.0715959466        0.7184273621
| 22>  H         -0.5935203750       -1.4564575098       -0.9396263323
| 23>  H         -2.0599916693       -0.0527473104        1.3504899977
| 24>  H         -2.1333527138        0.4547616578       -1.5175350667
| 25>  H         -3.2957007595       -0.2952330718       -0.6318647498
| 26>  H         -0.2038023856        1.5053605212       -0.4865443875
| 27>  H         -0.2654758447        1.6244999136        1.2857275614
| 28> *
| 29>
| 30>
| 31>                          ****END OF INPUT****
FINAL SINGLE POINT ENERGY      -326.635443557818
FINAL SINGLE POINT ENERGY      -326.637093880409
FINAL SINGLE POINT ENERGY      -326.637322583490
FINAL SINGLE POINT ENERGY      -326.637650414817
FINAL SINGLE POINT ENERGY      -326.637876762097
FINAL SINGLE POINT ENERGY      -326.637958861120
FINAL SINGLE POINT ENERGY      -326.638013030810
FINAL SINGLE POINT ENERGY      -326.638030948999
FINAL SINGLE POINT ENERGY      -326.638033041517
                    ***********************HURRAY********************

CARTESIAN COORDINATES (ANGSTROEM)
---------------------------------
  C      2.788441    0.421926   -0.039610
  O      1.709618   -0.391935   -0.422677
  C      0.588596   -0.287519    0.411894
  C     -0.601807   -1.164068   -0.010794
  C     -1.550070    0.022239    0.359779
  N     -2.701114    0.382650   -0.436643
  C     -0.323666    0.965964    0.292220
  H      2.529517    1.499841   -0.055744
  H      3.608530    0.250827   -0.753050
  H      3.151323    0.175695    0.979936
  H      0.879164   -0.467861    1.468055
  H     -0.739765   -2.137698    0.485730
  H     -0.571135   -1.312678   -1.102839
  H     -1.885263   -0.082531    1.406131
  H     -2.463068    0.393363   -1.429559
  H     -3.453047   -0.298113   -0.323422
  H     -0.225563    1.399325   -0.717377
  H     -0.244652    1.769637    1.040631

ORBITAL ENERGIES
----------------

  NO   OCC          E(Eh)            E(eV)
   0   2.0000     -19.126388      -520.4555
   1   2.0000     -14.300415      -389.1341
   2   2.0000     -10.227362      -278.3007
   3   2.0000     -10.226094      -278.2662
   4   2.0000     -10.208491      -277.7872
   5   2.0000     -10.172912      -276.8190
   6   2.0000     -10.171660      -276.7849
   7   2.0000      -1.020433       -27.7674
   8   2.0000      -0.877900       -23.8889
   9   2.0000      -0.803886       -21.8748
  10   2.0000      -0.685621       -18.6567
  11   2.0000      -0.648332       -17.6420
  12   2.0000      -0.600521       -16.3410
  13   2.0000      -0.551552       -15.0085
  14   2.0000      -0.499007       -13.5787
  15   2.0000      -0.489190       -13.3115
  16   2.0000      -0.472340       -12.8530
  17   2.0000      -0.447211       -12.1692
  18   2.0000      -0.427519       -11.6334
  19   2.0000      -0.418492       -11.3878
  20   2.0000      -0.382057       -10.3963
  21   2.0000      -0.367867       -10.0102
  22   2.0000      -0.346833        -9.4378
  23   2.0000      -0.336579        -9.1588
  24   2.0000      -0.320565        -8.7230
  25   2.0000      -0.298509        -8.1228
  26   2.0000      -0.247762        -6.7420
  27   2.0000      -0.226351        -6.1593
  28   0.0000       0.054540         1.4841
  29   0.0000       0.064424         1.7531
  30   0.0000       0.078145         2.1264
  31   0.0000       0.098447         2.6789
  32   0.0000       0.111266         3.0277

Total SCF time: 0 days 0 hours 0 min 3 sec

FINAL SINGLE POINT ENERGY      -326.638033935850

DIPOLE MOMENT
-------------
                                X             Y             Z
Electronic contribution:     -0.44675      -1.25445      -0.75380
Nuclear contribution   :      0.46451       1.13397       0.89734
                        -----------------------------------------
Total Dipole Moment    :      0.01776      -0.12048       0.14354
                        -----------------------------------------
Magnitude (a.u.)       :      0.18824
Magnitude (Debye)      :      0.47847

Rotational constants in cm-1:     0.239065     0.047487     0.043938
Rotational constants in MHz :  7166.996937  1423.611223  1317.222710

                             ****ORCA TERMINATED NORMALLY****
TOTAL RUN TIME: 0 days 0 hours 1 minutes 21 seconds 275 msec
